# vtk DataFile Version 2.0
Generated output
ASCII
DATASET UNSTRUCTURED_GRID
POINTS        66 double
-1.0000000000e+00 -1.0000000000e+00 -1.0000000000e+00
-1.0000000000e+00 -1.0000000000e+00  1.0000000000e+00
 1.0000000000e+00 -1.0000000000e+00 -1.0000000000e+00
-1.0000000000e+00  1.0000000000e+00 -1.0000000000e+00
 1.0000000000e+00 -1.0000000000e+00  1.0000000000e+00
-1.0000000000e+00  1.0000000000e+00  1.0000000000e+00
 1.0000000000e+00  1.0000000000e+00 -1.0000000000e+00
 1.0000000000e+00  1.0000000000e+00  1.0000000000e+00
 2.0000000000e-01  0.0000000000e+00  0.0000000000e+00
 1.4751137940e-01  1.3505699888e-01  0.0000000000e+00
 1.5591457199e-01  5.8660824241e-02  1.1067770300e-01
 1.5917576655e-01  5.8186128552e-02 -1.0619533788e-01
 5.1144726300e-02  1.3689994112e-01 -1.3653799139e-01
 1.2127630802e-02  1.9943275669e-01 -8.9160601309e-03
 1.4677649383e-01 -7.1774458596e-02  1.1534768291e-01
 3.9472694320e-02  1.4690797712e-01  1.2984588042e-01
 1.4568462107e-01 -7.7315588321e-02 -1.1312953189e-01
 1.1631009083e-01 -1.6269633929e-01  1.3652666133e-03
 6.8236730255e-02  9.7712335970e-05 -1.8799930611e-01
-8.3256128858e-02  1.5225381530e-01 -9.9434363951e-02
 6.0100860759e-02  3.0403965517e-03  1.9073186028e-01
-1.2933096820e-01  1.4589096148e-01  4.4601883611e-02
 6.0603307592e-03 -1.3780066158e-01 -1.4482489447e-01
-7.5042292427e-02  1.9463791839e-02 -1.8436326954e-01
 1.2285927377e-02 -1.3842906503e-01  1.4382784829e-01
-9.3137795351e-02  3.4333996447e-03  1.7695638684e-01
-1.7640368944e-01  5.5519997008e-02 -7.6152926956e-02
-1.5367419858e-01 -1.0209412812e-01 -7.7207704893e-02
-3.9937590963e-02 -1.9597001049e-01 -8.6244753239e-04
-1.3207410628e-01 -1.2312684155e-01  8.6001228713e-02
-1.9381219273e-01 -1.7479030264e-03  4.9333343544e-02
-2.3421732941e-01  2.9624659820e-01  1.8839999266e-01
 3.0699912988e-01 -3.5033239393e-01  2.6146265456e-01
-4.4458810133e-01 -1.9537724085e-01  3.1704320965e-01
-4.3837437663e-02 -6.8187123175e-01  1.0051242876e-01
 5.4329028256e-01  8.6294461149e-02  7.9188668562e-02
 1.5488674765e-01  5.4813460290e-01 -1.9007113239e-02
 3.1454744390e-01  2.9298066781e-01 -3.5255973754e-01
 4.0697835667e-01 -1.3182997070e-01 -4.1482500796e-01
 2.4617882064e-01  6.3327957247e-02 -2.3058830518e-01
-4.3180420302e-02  2.5817904707e-01 -6.5177351655e-01
 7.5208425666e-02 -2.7637559802e-02 -3.4471301054e-01
 2.2735113705e-01  1.9123794139e-01  3.9358337324e-01
 4.1786335131e-01 -4.2255828619e-01 -1.3202559385e-01
 2.4391393720e-01 -2.4453633494e-01  5.1963486106e-02
-4.4630796668e-01  4.3748974453e-01 -2.0155462821e-01
-2.1787922209e-01  2.1822027465e-01 -6.5985838260e-02
-7.0342733763e-01  3.3752093604e-02 -4.6771224567e-04
 8.5815963638e-02 -3.4052542668e-01  1.0249694933e-01
-4.2233686382e-02 -2.2204627554e-01  4.6153632116e-01
 1.0527173460e-01 -3.0532931403e-01 -1.7887682983e-01
-3.5127536088e-02 -4.8608124324e-01 -5.2395266766e-01
-3.2980792227e-01  2.3079649822e-02 -1.8199840600e-01
-4.9096039066e-01 -5.0685469050e-02 -4.6113347710e-01
-1.7729911048e-01  1.4530159144e-01 -2.8367167584e-01
-3.2984965674e-01  1.3942050266e-02  6.6257087873e-02
-3.6589725171e-01 -1.8579068260e-01 -5.2479046945e-02
-4.8090352969e-01 -4.8018862793e-01 -1.3753026615e-01
-1.3250114728e-01 -3.4018786531e-01 -1.2528223926e-01
-1.7965342228e-01 -1.5541343506e-01 -3.1437533192e-01
-1.6294934109e-01 -3.1663835811e-01  9.0503496310e-02
 7.0668670933e-02 -4.9176032748e-02 -1.7128274302e-03
-6.0027581876e-02 -1.7007184029e-02  6.3036775298e-03
 4.5468168823e-02  7.5910092187e-02 -1.6911026002e-02
 2.5920253973e-01  1.9357796130e-01 -1.1890201840e-01
-9.5416129253e-02  3.3160521759e-01 -1.4736813385e-01

CELLS       308      1540
4     39     41     37     12
4     13     19     12     65
4      8     10     14     61
4     17     22     16     61
4     39     41     38     37
4      8     63     61     11
4     63     21     15     62
4     18     62     22     23
4     40     37     38     41
4     40     37      6     38
4     17     24     28     61
4     13     15      9     63
4     62     63     23     18
4     22     61     28     62
4     62     22     23     27
4     12     13      9     63
4     63     21     62     19
4     15     10      9     63
4     15     62     25     20
4     24     17     14     61
4     55     30     21     26
4     39     18     16     41
4     61     11     18     16
4     17     50     44     16
4     22     17     28     61
4      8     63     11      9
4     24     25     62     20
4     22     23     27     59
4      8     11     61     16
4     53     40     54     45
4     29     28     27     60
4     19     13     12     63
4     61     18     22     16
4     61     63     20     62
4     61     24     28     62
4     62     23     19     26
4     11     12      9     63
4     54     26     23     52
4     34     48     32     49
4     46     13     19     21
4     56     47     57     53
4     50     43     34     48
4     55     30     26     27
4     40      6      3      0
4     42      9     10     35
4     22     28     27     62
4      7      2      6     35
4     56     58     60     27
4     21     31     55     46
4      3     40     53     45
4     60     29     49     33
4     52     27     59     56
4     14     42     35     32
4     46     54     65     45
4     25     42     20     49
4     29     24     49     25
4     24     17     48     14
4     62     29     24     28
4      6      2     38     35
4     22     28     58     27
4     62     29     28     27
4      8     39     16     38
4      1     47     57     33
4     52     55     26     27
4     22     50     28     17
4      3      1      5     47
4     24     25     29     62
4     44     14     32     48
4     48     14     32     49
4     10     61     63     20
4     14     24     49     48
4     43     34     32      4
4     61     18     11     63
4     51     57     58     34
4     30     55     29     27
4     23     19     54     12
4     44     14     35     32
4     34     60     49     33
4     49     31     42      5
4     62     27     23     26
4     41     40     37     12
4     15     10     63     20
4      4     42     49     32
4     33      1     47      5
4     51     40     38     41
4     64     39     35     37
4      6     36     37     40
4     43     50     44     48
4     14     42     49     20
4     46     55     21     26
4     46     54     45     52
4     35     42     14     10
4     11     39     12     18
4     63     19     23     12
4     18     62     61     22
4     55     33     56     47
4      1     33     49      5
4     35     39      8     38
4     59     27     52     23
4      5     42     36     31
4     58     28     60     27
4     23     63     62     19
4      3      1     47      0
4     43     35      4     32
4     39     12     18     41
4     48     43     34     32
4     24     61     14     20
4     61     24     62     20
4     17     44     48     14
4     43     51     34      2
4     60     28     48     24
4      7      2     35      4
4     12     23     18     41
4     57     47      0     53
4     33     56     47     57
4     63     23     18     12
4     50     43     51     34
4     61     63     62     18
4     36     42      5      7
4     42      9     15     10
4      7     42     35     36
4     34     57     60     33
4     33     56     57     60
4     42      9     35     36
4     34      4     49     32
4     60     28     24     29
4     15     63     62     20
4     12     64     36     37
4      3     40      0     53
4     57     51     53      0
4      6     40      2      0
4     44     17      8     14
4      8     64     11     39
4     25     30     29     62
4     30     27     29     62
4     14     42     32     49
4     49     31      5     33
4     13     31     15     21
4     31     65     45     46
4     33     56     60     29
4      1     34      4     49
4     27     62     30     26
4      6      3     36     40
4     46     55     26     52
4      6     35     38     37
4     56     33     55     29
4     57     51     59     53
4      3     36     45      5
4     26     30     21     62
4     49     31     33     25
4     36      3     45     40
4     51     57     59     58
4      2     51     34      0
4     43      8     16     38
4     51     40      0      2
4     11     12     64      9
4     15     21     25     62
4     58     48     34     60
4     35     42      4     32
4     63     21     19     13
4     19     26     21     62
4     63     21     13     15
4      7      3      5     36
4     49     31     25     42
4     51     43     38      2
4     64     39     37     12
4      2     43     35      4
4     24     14     49     20
4     36     42     15     31
4     21     30     25     62
4     24     25     20     49
4     35     64     36      9
4     58     22     27     59
4      8     64     39     35
4     11     39     18     16
4     14     42     20     10
4     54     65     12     19
4     47      3      0     53
4     42      4     49      5
4     50     22     58     59
4     56     58     27     59
4      8     61     14     17
4     22     50     41     59
4     51     50     58     59
4      8     61     17     16
4     40     51     38      2
4     50     51     41     59
4     43     35     44      8
4     55     25     29     33
4     50     41     38     16
4     57     56     59     58
4     40     51     53     59
4     63     18     11     12
4     22     23     41     18
4     13     46     31     21
4     29     60     49     24
4      8     63      9     10
4      8     35     10      9
4     29     25     55     30
4     35      8     10     14
4      8     64     35      9
4      4      1     49      5
4     64     12     36      9
4     35     39     38     37
4      8     64      9     11
4     54     26     52     46
4     55     56     29     27
4     60     34     49     48
4      7     42      5      4
4     50     43     44     16
4     44     43     48     32
4     35     14     44      8
4     40     51     59     41
4     40     36     37     12
4     51     57     34      0
4     41     39     38     16
4      6      7     35     36
4     43     44     16      8
4     56     57     60     58
4     50     17     44     48
4     17     50     28     48
4     35     43     44     32
4     17     28     24     48
4     58     48     60     28
4      8     63     10     61
4     61     10     14     20
4     57     34     60     58
4     43     50     38     16
4     54     26     46     19
4     47     56     52     53
4      3     47      5     45
4      1      2      4     34
4     31     25     15     21
4     33     29     49     25
4     30     55     21     25
4     42      9     36     15
4     56     57     59     53
4     47      3     53     45
4     12     13     36      9
4     55     56     27     52
4     52     23     27     26
4     13     36      9     15
4     55     31     21     25
4     19     46     21     26
4     40      6      2     38
4     36     31     45      5
4     40     51      0     53
4     35      6     36     37
4     52     59     53     56
4     64     39     12     11
4     58     48     28     50
4     58     48     50     34
4     43     35      8     38
4     34      1     33     49
4     50     51     58     34
4     47     31     55     33
4      1     57     34     33
4     11     39     16      8
4     22     50     17     16
4     50     22     41     16
4     42     20     10     15
4     47     31     33      5
4     47     55     45     52
4     18     22     16     41
4     53     40     59     54
4     54     26     19     23
4     42     25     15     31
4      2     43     38     35
4     42     25     20     15
4     44     17     16      8
4     50     43     38     51
4     55     56     52     47
4     13     36     15     31
4     55     46     45     52
4     31     65     46     13
4     40     41     54     12
4     29     56     60     27
4     54     65     45     40
4     55     33     31     25
4     31     65     13     36
4     31     65     36     45
4     36     13     12     65
4     47     31      5     45
4     54     65     40     12
4     52     47     53     45
4     55     46     31     45
4     65     46     13     19
4      1      2     34      0
4     65     36     45     40
4      4     42     35      7
4     50     51     38     41
4     52     53     54     45
4     41     23     54     12
4     43      2     34      4
4     22     50     58     28
4     23     22     41     59
4     52     59     23     54
4     46     54     19     65
4     52     59     54     53
4     36     65     12     40
4     40     41     59     54
4     57      1     34      0
4     47      1     57      0
4      7      3     36      6
4     64     35     36     37
4     47     31     45     55
4     24     60     49     48
4     41     23     59     54

CELL_TYPES       308
10 10 10 10 10 10 10 10 10 10 10 10 10 10 10 10 
10 10 10 10 10 10 10 10 10 10 10 10 10 10 10 10 
10 10 10 10 10 10 10 10 10 10 10 10 10 10 10 10 
10 10 10 10 10 10 10 10 10 10 10 10 10 10 10 10 
10 10 10 10 10 10 10 10 10 10 10 10 10 10 10 10 
10 10 10 10 10 10 10 10 10 10 10 10 10 10 10 10 
10 10 10 10 10 10 10 10 10 10 10 10 10 10 10 10 
10 10 10 10 10 10 10 10 10 10 10 10 10 10 10 10 
10 10 10 10 10 10 10 10 10 10 10 10 10 10 10 10 
10 10 10 10 10 10 10 10 10 10 10 10 10 10 10 10 
10 10 10 10 10 10 10 10 10 10 10 10 10 10 10 10 
10 10 10 10 10 10 10 10 10 10 10 10 10 10 10 10 
10 10 10 10 10 10 10 10 10 10 10 10 10 10 10 10 
10 10 10 10 10 10 10 10 10 10 10 10 10 10 10 10 
10 10 10 10 10 10 10 10 10 10 10 10 10 10 10 10 
10 10 10 10 10 10 10 10 10 10 10 10 10 10 10 10 
10 10 10 10 10 10 10 10 10 10 10 10 10 10 10 10 
10 10 10 10 10 10 10 10 10 10 10 10 10 10 10 10 
10 10 10 10 10 10 10 10 10 10 10 10 10 10 10 10 
10 10 10 10 
CELL_DATA       308

FIELD MeshProcessorData 5

__mp_Volume 1       308 double
2.0819565612e-03 5.3253501154e-04 3.1227476095e-04 3.8813685604e-04 
2.9464989977e-03 2.8307786357e-04 5.4173831761e-04 6.3324836522e-04 
7.8549847790e-03 3.6902643161e-02 4.6490265626e-04 3.4182644433e-04 
4.7206854104e-04 5.4398909686e-04 6.6467141975e-04 3.0617957189e-04 
5.1334386156e-04 3.4262731600e-04 6.6842830975e-04 3.8917512968e-04 
4.3801970542e-04 5.6619727281e-04 3.5003681595e-04 7.9143846584e-04 
4.6106904646e-04 2.9194035019e-04 6.0573326287e-04 1.0355086101e-03 
3.0764358555e-04 1.1039145446e-02 6.1580683601e-04 3.1492057604e-04 
4.1251019826e-04 5.1477282085e-04 5.5150375739e-04 4.9353071551e-04 
2.7759602651e-04 7.1391898969e-04 6.1507723642e-03 3.5356194408e-04 
9.1986131222e-03 5.7372411666e-03 4.3098225975e-04 2.3215098897e-01 
2.3517584492e-03 5.7580582916e-04 3.0447314496e-01 1.7926850884e-03 
1.4590528528e-03 5.4936268192e-02 4.4044526957e-03 1.8445234244e-03 
8.9151293674e-03 2.3248909110e-03 2.4298650539e-03 1.2297400174e-03 
6.0016360466e-04 5.0350875383e-04 1.2424237748e-01 8.4469209969e-04 
4.5900002355e-04 1.2430797531e-03 4.1583641406e-02 1.0349495303e-03 
7.5516535156e-04 1.9771510825e-01 5.4759624293e-04 1.5251563112e-03 
4.6425281182e-03 4.4344589466e-04 1.6696920405e-03 3.8248224354e-02 
3.9969819269e-04 1.1201995821e-02 4.1112173859e-04 5.8805767088e-04 
3.4802386441e-03 7.6267216524e-03 4.9711577508e-02 5.0992372136e-04 
6.1170869584e-03 4.4567123989e-04 3.5850578799e-02 1.1770845267e-01 
1.1839183887e-02 2.3268280693e-03 3.7534323780e-02 2.1355310198e-03 
2.4504313789e-03 7.8772307480e-04 2.7209957697e-03 2.4514908932e-03 
4.0264263334e-04 4.6282048921e-04 5.8043184003e-04 4.9120045679e-03 
1.1834795774e-01 3.9065454083e-03 1.4792394185e-03 4.5663135708e-02 
9.8976949740e-04 5.5018580619e-04 1.9771510825e-01 3.7302740305e-02 
6.1452283556e-04 6.2805786399e-03 4.2867680044e-04 5.8634498620e-04 
6.9375896228e-04 5.1596687379e-02 1.0332670573e-03 3.0447314496e-01 
4.7009293376e-04 3.8835220282e-02 7.7742862495e-03 4.5898986921e-04 
1.0969813064e-02 4.6504107746e-04 1.8337186693e-01 8.0652204151e-04 
5.1294642476e-02 8.6217198543e-03 5.3057755756e-03 1.0400877719e-02 
3.8754922818e-02 6.1161246897e-04 5.0210169567e-04 3.4832621911e-03 
1.1277898895e-01 5.4871430810e-02 2.3215098897e-01 5.5008214507e-04 
4.2347636517e-04 4.2891942302e-04 4.1039706322e-04 8.2002381729e-03 
4.5780523343e-02 8.2246148777e-04 2.6875128663e-03 3.0141418920e-03 
1.7615297308e-01 4.0613478150e-04 1.9012319328e-01 1.0975467473e-03 
3.7228405246e-02 3.0386813990e-03 1.0806098234e-02 1.3314712299e-01 
4.3547437983e-04 5.9870527466e-03 5.4132344568e-02 6.7703233491e-03 
1.3804320924e-01 3.3492144027e-03 1.3999755250e-01 4.6074656959e-04 
8.1836363471e-04 3.1904717214e-03 3.9904960225e-02 4.0757490183e-04 
4.6969302542e-04 4.7174965349e-04 3.0124359807e-01 6.4740789639e-03 
4.3868147059e-02 1.3705562988e-03 1.2288285838e-01 8.8058015280e-04 
7.2673255310e-03 5.4701676418e-04 1.2577696964e-03 3.7595586858e-03 
1.4801908049e-03 2.0742069060e-03 3.9370841718e-04 6.8025542474e-04 
8.5826577610e-04 1.1632948197e-01 1.2855292604e-01 1.5298574268e-03 
2.0242569893e-03 3.2464012066e-04 1.8401130031e-03 4.1293987229e-03 
3.2013409031e-04 5.2921893427e-02 5.2932957013e-03 3.8079336388e-03 
2.1562296060e-03 3.3937077217e-03 3.6594834701e-03 1.2499876696e-02 
3.3737762716e-04 5.7350277246e-04 9.0544897566e-04 1.5713470149e-03 
3.1959069701e-04 9.7673584498e-04 3.7994678023e-04 9.1302883288e-04 
1.2481809749e-03 3.5897578589e-01 1.8106954663e-03 5.8961900722e-03 
3.7009311766e-04 9.9628345965e-04 1.2159594762e-03 5.3759704747e-03 
4.0427775118e-01 2.3104716313e-03 2.2039181794e-03 1.7264584618e-03 
8.3198410406e-03 1.0674994233e-02 4.3242370978e-02 2.2004004350e-03 
1.8860444727e-01 1.3662553363e-03 2.9568573752e-03 1.0987629201e-03 
1.1745354680e-03 5.5140462305e-03 7.6503176536e-04 1.2765243489e-03 
3.4713653689e-04 3.6413755904e-04 5.2138885048e-03 4.4534636633e-03 
6.6336046023e-04 5.2183399497e-03 1.2272620130e-01 2.1208584550e-01 
1.2744048454e-03 3.4526145198e-03 4.9150856058e-04 3.6602084992e-03 
6.1923182605e-03 4.0133624563e-02 1.2431178472e-03 1.6686339555e-03 
7.1518514355e-04 1.2700231106e-03 1.7351276301e-03 4.2346916573e-04 
1.3464575089e-01 4.6414636142e-02 4.8141086108e-02 4.0311679525e-02 
3.3026858270e-03 5.0776341186e-04 1.6202997873e-03 3.5782166970e-03 
1.0715315765e-02 4.7554587879e-02 6.8551012950e-03 6.2630237680e-03 
5.5249759781e-02 3.4448255453e-04 6.8918597042e-04 1.1616693332e-03 
9.6624667059e-04 5.1633721877e-02 6.3109975925e-03 4.4975478940e-04 
6.9901080948e-03 5.7248485916e-04 3.1178140734e-03 2.9188517044e-02 
9.7423227738e-04 5.0388238085e-04 8.2580836597e-03 3.1808382735e-03 
2.8491297531e-03 2.8774424632e-03 1.5510150301e-03 3.8351296020e-03 
1.0620047760e-03 5.9071097559e-03 4.0966273081e-03 4.1176386084e-03 
6.5063539922e-03 1.7215796208e-03 4.9726862971e-02 3.6507391078e-03 
9.5212838656e-03 3.6060277623e-03 5.5173193979e-04 2.1208584550e-01 
8.4506354893e-03 1.4483582066e-01 7.6993606703e-03 4.8524771700e-03 
1.2480365142e-03 1.3918695465e-01 9.8775362575e-04 1.4535624301e-03 
1.4425745723e-03 8.6830300186e-04 2.9816922156e-03 6.8058687390e-03 
4.5404156410e-03 1.1062821758e-01 1.2748507347e-01 3.0124359807e-01 
5.0459197560e-03 7.1499615177e-03 2.7556775203e-03 1.6514923017e-03 

__mp_Quality 1       308 double
8.4048815311e-01 9.0409754765e-01 9.2417867666e-01 9.5192192478e-01 
7.9767636227e-01 8.0831653336e-01 8.1459216160e-01 9.0371529500e-01 
8.2340437060e-01 6.7556412570e-01 9.3169020257e-01 9.5678937149e-01 
7.2067966025e-01 9.2683907949e-01 9.6941505066e-01 9.6225465599e-01 
8.8611915508e-01 9.0475346689e-01 9.0600265574e-01 9.5327016595e-01 
8.4203086792e-01 7.6115630350e-01 9.2952639535e-01 7.6432991402e-01 
9.1847326525e-01 9.4892022258e-01 9.2580147149e-01 9.6381918173e-01 
9.2564523956e-01 8.5855215457e-01 8.9113858666e-01 9.4043805016e-01 
9.2402567996e-01 9.2604343548e-01 9.4232797523e-01 9.5022794000e-01 
9.1791296266e-01 7.7558628224e-01 8.1462023123e-01 7.6853755209e-01 
8.5177578725e-01 8.5111227358e-01 8.1550815161e-01 4.8403038959e-01 
5.8075362478e-01 9.6732761325e-01 5.5320644481e-01 9.4915400857e-01 
8.9656928815e-01 8.4077729562e-01 8.4635989728e-01 9.4867504004e-01 
8.9188546552e-01 8.8815799673e-01 5.9524551126e-01 7.9496188029e-01 
7.9271429060e-01 9.7027422048e-01 5.5218015761e-01 9.4918551854e-01 
9.6934919347e-01 6.7857840337e-01 7.2040348539e-01 9.1690965882e-01 
9.0698090426e-01 4.0398149287e-01 9.7213325718e-01 8.7580916082e-01 
9.2955948618e-01 8.5622181567e-01 6.9489638909e-01 7.0448722330e-01 
9.0038005803e-01 8.5776033858e-01 7.3475657721e-01 8.5623480528e-01 
7.6365148786e-01 7.6735429443e-01 7.1900766912e-01 9.7012566124e-01 
8.3164205054e-01 9.1236233185e-01 7.0447339175e-01 5.7392891937e-01 
7.6533284490e-01 7.5997423715e-01 6.3038338192e-01 7.8070258562e-01 
5.9865456095e-01 9.2442192366e-01 8.9160748100e-01 6.0340956365e-01 
8.7677664682e-01 9.3490529010e-01 8.9475721906e-01 9.0758819094e-01 
5.6637167500e-01 6.8254438849e-01 9.6090955195e-01 6.9959071504e-01 
8.8814226155e-01 8.6960196775e-01 3.9549113668e-01 6.9380258189e-01 
7.3820879831e-01 8.2139863293e-01 9.2651200954e-01 9.1616853437e-01 
8.8094607573e-01 7.4293133384e-01 9.1693130093e-01 5.5100039441e-01 
7.7238499003e-01 7.3261449473e-01 8.4057508335e-01 9.1530477392e-01 
8.0150968282e-01 9.1706523523e-01 7.1508438593e-01 7.1505155324e-01 
7.7869962200e-01 7.5796065156e-01 8.9065232512e-01 9.1263706213e-01 
7.0316000012e-01 9.1794078063e-01 7.3631247637e-01 7.8875037626e-01 
5.8911717424e-01 8.6455932516e-01 4.0373212439e-01 8.9304578747e-01 
7.4231500512e-01 9.8755400818e-01 9.8739059024e-01 8.8633903265e-01 
7.0566345737e-01 7.8333534013e-01 7.6047169111e-01 8.9350437432e-01 
7.7293256306e-01 9.7855064870e-01 7.7895904244e-01 9.0692903836e-01 
6.9742113510e-01 9.3183537972e-01 8.2315736773e-01 5.5600525538e-01 
9.8085051090e-01 6.9311982808e-01 7.2423662331e-01 8.6133185742e-01 
6.2937213083e-01 6.1378317565e-01 5.5688300058e-01 9.3511814622e-01 
9.5984992153e-01 8.8865592623e-01 7.1923262793e-01 9.3948102893e-01 
9.4199370523e-01 9.4396697074e-01 5.1849472415e-01 6.9579941552e-01 
7.8906810857e-01 8.7850245508e-01 5.4686027217e-01 7.1406530844e-01 
8.1235509781e-01 9.7492694670e-01 8.3250249871e-01 7.3846359528e-01 
9.5834713413e-01 8.1590756407e-01 9.1849299884e-01 7.1836665469e-01 
8.3169641344e-01 6.0403851500e-01 6.2740571450e-01 8.3572154958e-01 
9.5339236144e-01 9.2732905992e-01 8.5667738612e-01 8.7379387687e-01 
9.3294069086e-01 7.1379515503e-01 8.9135958085e-01 6.3974344720e-01 
8.1860376781e-01 8.8766627816e-01 8.8748518802e-01 7.8163723930e-01 
9.3888591795e-01 8.8229584481e-01 7.7880373264e-01 7.2175009900e-01 
9.3851098395e-01 7.6870542230e-01 7.1361340506e-01 7.4339472740e-01 
6.5922366440e-01 6.4988080091e-01 8.0882225162e-01 7.9056330352e-01 
8.5705698398e-01 9.0619384611e-01 8.6990254656e-01 8.8346246627e-01 
7.1060027642e-01 7.9088582561e-01 8.0154905234e-01 7.0762835197e-01 
8.1259839376e-01 8.7764214354e-01 7.1063644159e-01 8.8379052257e-01 
7.7356465518e-01 6.2430501299e-01 8.8141833250e-01 9.1146728615e-01 
9.3652729225e-01 7.8187594645e-01 9.6995010771e-01 9.2320362572e-01 
8.8222011485e-01 9.3016530373e-01 8.4602446424e-01 8.0396498100e-01 
9.3534910449e-01 8.3269569327e-01 6.2694421487e-01 4.2990853957e-01 
8.8428505557e-01 7.2666988950e-01 7.2368188314e-01 6.9744178991e-01 
8.6585815368e-01 7.4738451158e-01 7.6232465902e-01 9.9403828305e-01 
9.0607947597e-01 7.6403385330e-01 8.9223715640e-01 9.8749842061e-01 
5.9956312744e-01 6.9760395087e-01 6.7194264986e-01 7.0258895164e-01 
8.8965086691e-01 8.5672523624e-01 8.9628083717e-01 8.2156442865e-01 
9.1796168647e-01 7.4026765493e-01 8.3554766026e-01 7.5855201470e-01 
8.0014037533e-01 7.7237505870e-01 9.0471134841e-01 8.8860194510e-01 
8.4451184233e-01 7.7021210433e-01 8.3346260699e-01 7.9704450885e-01 
8.5344492733e-01 9.3332989424e-01 7.8007958121e-01 6.7750581468e-01 
7.1339548934e-01 7.8294270976e-01 8.4406092965e-01 9.2135709881e-01 
7.0520090012e-01 8.1147641267e-01 8.2058995916e-01 7.8876085369e-01 
7.6464595233e-01 8.1609327699e-01 8.5033371401e-01 8.8471763271e-01 
7.5375611569e-01 7.6169054266e-01 7.6926342829e-01 8.3466713299e-01 
8.9950347744e-01 8.0578775144e-01 8.1824240516e-01 4.1488749128e-01 
5.9440706568e-01 6.5199430015e-01 9.1245976604e-01 8.2600783006e-01 
8.6154593717e-01 6.3677246564e-01 8.5675987398e-01 9.6205166667e-01 
8.8318710176e-01 9.5208865503e-01 9.0003471761e-01 7.7199117692e-01 
8.3756689143e-01 5.9223557222e-01 6.2461181117e-01 5.7172392946e-01 
6.8367143186e-01 7.0656642034e-01 9.0502983793e-01 8.8262564664e-01 

__mp_CenterX 1       308 double
1.7176985413e-01
-2.8849975252e-02
1.4333993419e-01
8.4680928398e-02
2.6072826172e-01
1.1882815158e-01
-2.6104421734e-02
-1.5193203322e-02
1.8838845148e-01
4.1958634507e-01
3.9831774544e-02
6.1144968336e-02
-5.3412438063e-03
-5.8090427868e-03
-7.0670935531e-02
6.4062976331e-02
-5.6786627528e-02
9.7091703633e-02
-1.3397955537e-02
8.6510295743e-02
-2.0734912678e-01
1.3382714941e-01
1.1094144720e-01
1.5279509593e-01
3.8275375389e-02
1.3803882869e-01
-2.0194647273e-02
-1.0057739563e-01
1.4388226464e-01
-2.8943697203e-01
-1.2215880923e-01
6.3710992668e-03
7.2662588254e-02
2.9052529660e-02
-4.2526436323e-03
-9.8682423151e-02
1.0082501027e-01
-1.8963825366e-01
7.6685992367e-02
-1.0458467209e-01
-5.1029712742e-01
1.4127840297e-01
-2.1343493437e-01
-2.6079510508e-01
2.6851684275e-01
-6.1894760165e-02
8.8582257064e-01
-2.0375548467e-01
-2.2781929411e-01
-4.9511219441e-01
-1.9546130877e-01
-2.5725819871e-01
3.0610426083e-01
-2.3422560712e-01
3.8020129018e-02
-6.3789915158e-02
9.0297118919e-02
-5.4938337935e-02
7.3756715981e-01
-8.0013151516e-02
-9.6428369424e-02
2.4971044960e-01
-6.5722974216e-01
-2.4743386676e-01
4.6926141306e-02
-9.2585683441e-01
-6.8238389032e-02
1.9587638114e-01
1.2433947524e-01
8.3038068126e-02
5.0661174616e-02
4.2025626088e-01
8.5887334140e-02
-1.7309241268e-01
-2.0235253858e-01
-7.1113201368e-02
3.1024496087e-01
-1.7340214162e-01
-2.6227496969e-01
-1.1628694058e-01
9.9430043892e-02
7.5239073973e-02
3.7302914514e-01
-7.8700385974e-01
1.0096970649e-01
3.4080477171e-01
3.5656344281e-01
2.1321624669e-01
9.7998701314e-02
-2.1336588412e-01
-2.9282355538e-01
2.6833312136e-01
1.3118401094e-01
-1.5421381541e-02
2.1234537518e-02
-4.6094058685e-01
-6.2170544693e-01
3.4911186497e-01
-1.8454445889e-01
-2.1299486118e-01
-1.2226556948e-01
-4.3214458585e-02
-9.2585683441e-01
5.6703819094e-01
1.1019217572e-01
1.9171025179e-01
7.2457988225e-02
2.0756969298e-02
1.4820412138e-01
3.3472459439e-01
-2.6196260260e-02
8.8582257064e-01
2.9886897449e-02
-6.6882281450e-01
-4.9870405509e-01
2.2451833238e-02
1.1104252804e-01
3.1086497034e-02
9.5559471174e-02
1.4256244569e-01
4.8138204181e-01
-2.8306960244e-01
-3.6358455596e-01
2.6825988666e-01
3.0523200146e-01
-8.0668777738e-02
2.1253535506e-02
1.9494536439e-01
-6.3353520274e-01
-5.0174786411e-01
2.3920489492e-01
1.7675013047e-01
2.1613928173e-01
-1.1976291906e-01
-1.3489701987e-01
1.5972326859e-01
-4.3025977928e-01
-7.7986993122e-02
-2.4845516186e-01
-2.7637720010e-01
-2.1517781011e-02
-1.4597941566e-01
2.7926581836e-02
-2.6348512263e-01
5.6620402078e-01
-3.1810227901e-01
-2.9666121968e-01
-5.7285530476e-01
-1.3989360806e-01
-2.0354422812e-01
-3.3365040983e-01
-2.0704640884e-01
-1.9741243438e-02
2.9263158226e-01
-1.9576989098e-02
1.5425860299e-01
-6.0755912777e-02
-6.3367990599e-02
5.1941013737e-01
-3.8747824358e-02
-1.1225459209e-01
-8.0656185639e-03
-2.1127831309e-01
-3.5559418524e-02
4.4742854297e-01
2.1776838264e-01
7.4028840847e-01
4.4232398896e-02
4.6873312401e-02
-1.1907713454e-01
-1.5746173399e-02
2.7622273733e-01
-1.1494210935e-01
3.1216791073e-01
1.5481898463e-01
1.4753576591e-01
-7.6206660574e-02
-7.9859693207e-01
4.6279362666e-02
-5.0205626051e-02
-2.0793150496e-01
1.3343881390e-01
1.7217671856e-03
-6.0502592763e-02
1.3316584571e-01
3.3216760007e-01
-8.5751995263e-03
3.5126689277e-01
-2.4991241492e-01
1.8328578450e-01
-2.8973883774e-01
-1.8723044233e-01
8.1006347982e-02
1.8615798563e-02
-1.4232497222e-01
-8.1242801593e-02
1.3722353005e-01
2.6167905849e-01
-1.8721843777e-01
2.6149533710e-01
2.8750105042e-01
-2.6055842160e-01
1.5318634827e-01
3.7774872594e-01
1.9147242142e-01
-2.2534748607e-01
-2.4537380333e-01
-4.0801125375e-02
3.0683778426e-01
2.2818341105e-01
2.6364809551e-01
2.8349517840e-01
-4.5688238252e-02
1.1934962439e-01
-3.8996712586e-01
2.1851255601e-01
6.7454425755e-01
2.5186547740e-01
-2.8556281744e-01
1.3782793157e-01
6.6865049526e-02
3.7801667524e-01
4.3618597720e-02
-6.2393028924e-02
1.1801285294e-01
1.0836514938e-01
-2.0504786393e-01
2.6894951591e-01
-1.6370953772e-01
-4.7252322557e-01
-7.8743382608e-01
2.3904064058e-01
-1.0430334966e-01
-1.7800842233e-01
-1.8653265325e-01
1.4230548960e-01
-3.7935364859e-01
-6.6017392374e-01
9.1417621037e-02
-2.9480725733e-01
-1.8373202568e-01
8.8499613042e-02
-1.9663393743e-01
-1.5171750215e-01
5.9094948409e-01
-3.8140963711e-01
-3.9231708676e-01
5.0318111853e-01
-3.4157974673e-01
1.7892546330e-01
4.6622399981e-03
3.6872783230e-03
3.9203299764e-01
-3.8266480634e-01
-2.6548596609e-02
-4.2802060628e-01
-4.9233226717e-01
1.8775980206e-01
9.3331694314e-02
8.3056278024e-02
1.2070981603e-01
-5.9555819209e-01
-4.5234822083e-01
7.3797526938e-02
-2.2277333593e-01
-1.2800030530e-01
-1.5132823349e-02
5.9203299764e-01
5.8446724194e-02
1.7647716228e-01
2.2374647662e-01
-4.3224554209e-01
-6.9325641604e-03
-3.3096119194e-01
-1.3384626249e-01
-2.3531594705e-02
-2.0364872441e-01
-1.9055090668e-01
-2.7544822071e-01
-4.0654770054e-02
-1.5526366942e-01
3.0685743874e-02
-5.9598815843e-01
-6.6187733435e-02
-4.9262590431e-01
-3.0706354373e-01
-9.6105962349e-02
-2.6095935942e-01
-1.0750444215e-01
6.9266035490e-01
1.3808274521e-01
-3.6109384752e-01
-3.1497062736e-02
5.9350647841e-01
-1.5276668222e-02
-4.3356739571e-02
-1.9045068687e-01
-1.4346264767e-01
-2.9443021143e-01
1.6858731098e-02
-8.1231131851e-02
-6.3118524184e-01
-7.9608271683e-01
2.8872168691e-01